# vtk DataFile Version 4.2
vtk output
ASCII
DATASET POLYDATA
POINTS 3874 float
-7.76993 21.2601 -8.72994 -8.36545 21.2601 -8.67522 -7.76993 21.178 -8.67522 
-7.69153 21.2601 -8.67522 -8.51718 22.0034 -8.77646 -8.7185 22.0034 -8.67522 
-8.51718 21.3499 -8.67522 -7.76993 22.0034 -8.83085 -7.54701 22.0034 -8.67522 
-8.51718 22.7467 -8.84024 -9.18105 22.7467 -8.67522 -7.76993 22.7467 -8.69892 
-7.73662 22.7467 -8.67522 -8.51718 23.49 -8.70456 -8.80142 23.49 -8.67522 
-8.45577 23.49 -8.67522 -7.76993 22.7963 -8.67522 -8.51718 23.5308 -8.67522 
-9.26442 20.5168 -8.0524 -9.41178 20.5168 -7.93746 -9.26442 20.3365 -7.93746 
-8.51718 20.0723 -7.93746 -8.51718 20.5168 -8.2814 -7.76993 20.3855 -7.93746 
-7.76993 20.5168 -8.08131 -7.62397 20.5168 -7.93746 -9.26442 21.2601 -8.24785 
-9.61867 21.2601 -7.93746 -8.51718 21.2601 -8.66676 -7.02269 21.1779 -7.93746 
-7.02269 21.2601 -8.01487 -6.96726 21.2601 -7.93746 -9.26442 22.0034 -8.33038 
-9.7613 22.0034 -7.93746 -7.02269 22.0034 -8.15756 -6.86506 22.0034 -7.93746 
-10.0117 22.7467 -8.17182 -10.3099 22.7467 -7.93746 -10.0117 22.3331 -7.93746 
-9.26442 22.7467 -8.6628 -7.02269 22.7467 -7.95916 -7.00721 22.7467 -7.93746 
-10.0117 23.49 -8.164 -10.2598 23.49 -7.93746 -9.26442 23.49 -8.64775 
-7.76993 23.49 -8.24075 -7.49536 23.49 -7.93746 -7.02269 22.7743 -7.93746 
-10.0117 23.7476 -7.93746 -9.26442 24.2061 -7.93746 -8.51718 24.2333 -7.96362 
-8.72917 24.2333 -7.93746 -8.48346 24.2333 -7.93746 -7.76993 23.7635 -7.93746 
-8.51718 24.2518 -7.93746 -9.26442 19.7735 -7.52267 -9.61655 19.7735 -7.1997 
-9.26442 19.4209 -7.1997 -8.51718 19.3866 -7.1997 -8.51718 19.7735 -7.65177 
-8.03015 19.7735 -7.1997 -10.0117 20.5168 -7.29607 -10.0813 20.5168 -7.1997 
-10.0117 20.3806 -7.1997 -7.76993 20.0388 -7.1997 -7.41063 20.5168 -7.1997 
-10.0117 21.2601 -7.44923 -10.2063 21.2601 -7.1997 -7.02269 21.2444 -7.1997 
-7.01515 21.2601 -7.1997 -10.0117 22.0034 -7.67934 -10.5262 22.0034 -7.1997 
-6.87303 22.0034 -7.1997 -10.7589 22.7467 -7.53969 -11.0712 22.7467 -7.1997 
-10.7589 22.2578 -7.1997 -6.92658 22.7467 -7.1997 -10.7589 23.49 -7.29652 
-10.826 23.49 -7.1997 -7.02269 22.9186 -7.1997 -7.40569 23.49 -7.1997 
-10.7589 23.5703 -7.1997 -10.0117 24.2333 -7.20683 -10.0171 24.2333 -7.1997 
-9.26442 24.2333 -7.36945 -7.76993 23.8474 -7.1997 -8.37895 24.2333 -7.1997 
-10.0117 24.2369 -7.1997 -9.26442 24.2473 -7.1997 -8.51718 24.3072 -7.1997 
-9.26442 19.0302 -6.78466 -9.61305 19.0302 -6.46195 -9.26442 18.7628 -6.46195 
-8.51718 18.9263 -6.46195 -8.51718 19.0302 -6.63324 -8.38394 19.0302 -6.46195 
-10.0117 19.7735 -6.60434 -10.0896 19.7735 -6.46195 -10.0117 19.6143 -6.46195 
-7.76993 19.6731 -6.46195 -7.76993 19.7735 -6.66322 -7.69794 19.7735 -6.46195 
-10.1461 20.5168 -6.46195 -7.43687 20.5168 -6.46195 -10.5829 21.2601 -6.46195 
-7.02269 21.1798 -6.46195 -6.98004 21.2601 -6.46195 -10.7589 22.0034 -6.99132 
-11.1765 22.0034 -6.46195 -10.7589 21.4296 -6.46195 -6.95292 22.0034 -6.46195 
-11.5062 22.7467 -6.58263 -11.5761 22.7467 -6.46195 -11.5062 22.5929 -6.46195 
-7.02269 22.7467 -6.98848 -7.02269 22.1707 -6.46195 -7.32407 22.7467 -6.46195 
-11.5062 22.8696 -6.46195 -11.0785 23.49 -6.46195 -7.76993 23.49 -6.63982 
-7.76993 23.3309 -6.46195 -7.93221 23.49 -6.46195 -10.7589 23.7984 -6.46195 
-10.0522 24.2333 -6.46195 -8.51718 24.2333 -7.02988 -8.51718 23.9233 -6.46195 
-9.10467 24.2333 -6.46195 -10.0117 24.2545 -6.46195 -9.26442 24.3005 -6.46195 
-2.53922 7.1373 -5.75882 -2.62283 7.1373 -5.72419 -2.53922 7.07148 -5.72419 
-1.79198 6.99304 -5.72419 -1.79198 7.1373 -5.8078 -1.04473 7.0703 -5.72419 
-1.04473 7.1373 -5.7613 -0.943757 7.1373 -5.72419 -3.28647 7.88061 -5.74171 
-3.31758 7.88061 -5.72419 -3.28647 7.83597 -5.72419 -2.91579 7.88061 -5.72419 
-2.53922 7.6279 -5.72419 -3.28647 7.88061 -5.74171 -3.28647 7.83597 -5.72419 
-1.79198 7.88061 -5.74507 -2.19269 7.88061 -5.72419 -1.04473 7.88061 -5.86111 
-0.297489 7.75796 -5.72419 -0.297489 7.88061 -5.77113 -0.174327 7.88061 -5.72419 
-3.28647 8.07037 -5.72419 -3.28647 8.07037 -5.72419 -2.53922 8.62391 -5.72618 
-2.56665 8.62391 -5.72419 -2.53922 8.5506 -5.72419 -1.79198 8.62391 -5.80785 
-1.04473 8.62391 -5.90691 -0.297489 8.62391 -5.82756 0.449756 8.5988 -5.72419 
0.449756 8.62391 -5.73254 0.465291 8.62391 -5.72419 -3.28647 9.36722 -5.81885 
-3.88358 9.36722 -5.72419 -3.28647 8.88509 -5.72419 -3.28647 9.36722 -5.81885 
-3.28647 8.88509 -5.72419 -2.53922 9.36722 -5.87731 -1.79198 9.36722 -5.90569 
-1.04473 9.36722 -5.81438 -0.297489 9.36722 -5.93155 0.449756 9.36722 -5.8115 
0.615611 9.36722 -5.72419 -4.03371 10.1105 -5.80912 -4.15876 10.1105 -5.72419 
-4.03371 9.52952 -5.72419 -3.28647 10.1105 -5.75278 -2.53922 10.1105 -5.92152 
-3.28647 10.1105 -5.75278 -1.79198 10.1105 -5.9122 -1.04473 10.1105 -5.83454 
-0.297489 10.1105 -5.77324 0.449756 10.1105 -5.87119 0.73462 10.1105 -5.72419 
-4.03371 10.8538 -5.80848 -4.15876 10.1105 -5.72419 -4.03371 10.1105 -5.80912 
-4.15694 10.8538 -5.72419 -3.28647 10.1105 -5.75278 -3.28647 10.8538 -5.74744 
-2.53922 10.1105 -5.92152 -2.53922 10.8538 -5.91816 -3.28647 10.1105 -5.75278 
-3.28647 10.8538 -5.74744 -1.79198 10.1105 -5.9122 -1.79198 10.8538 -5.91877 
-1.04473 10.1105 -5.83454 -1.04473 10.8538 -5.88278 -0.297489 10.1105 -5.77324 
-0.297489 10.8538 -5.79873 0.449756 10.1105 -5.87119 0.449756 10.8538 -5.89163 
0.751102 10.8538 -5.72419 0.73462 10.1105 -5.72419 -4.03371 11.0793 -5.72419 
-3.28647 11.5971 -5.84144 -3.56836 11.5971 -5.72419 -2.53922 11.5971 -5.7776 
-3.28647 11.5971 -5.84144 -1.79198 11.5971 -5.83788 -1.04473 11.5971 -5.77438 
-0.297489 11.5971 -5.92011 0.449756 11.5971 -5.79291 0.574801 11.5971 -5.72419 
-3.28647 11.7689 -5.72419 -3.28647 11.7689 -5.72419 -2.53922 11.6894 -5.72419 
-1.79198 11.7932 -5.72419 -1.04473 11.689 -5.72419 -0.297489 11.9234 -5.72419 
0.449756 11.7136 -5.72419 -9.26442 18.2869 -5.75832 -9.30529 18.2869 -5.72419 
-9.26442 18.2672 -5.72419 -9.21159 18.2869 -5.72419 -10.0117 19.0302 -6.06438 
-10.2762 19.0302 -5.72419 -10.0117 18.7359 -5.72419 -8.51718 18.5848 -5.72419 
-8.02213 19.0302 -5.72419 -10.4192 19.7735 -5.72419 -7.76993 19.3988 -5.72419 
-7.55807 19.7735 -5.72419 -10.5804 20.5168 -5.72419 -7.4067 20.5168 -5.72419 
-10.7589 21.2601 -6.29037 -11.1626 21.2601 -5.72419 -10.7589 20.7111 -5.72419 
-7.02269 21.2601 -6.38175 -7.43328 21.2601 -5.72419 -11.5062 22.0034 -5.75017 
-11.5161 22.0034 -5.72419 -11.5062 21.9784 -5.72419 -7.02269 22.0034 -6.34229 
-7.46002 22.0034 -5.72419 -11.6202 22.7467 -5.72419 -7.62092 22.7467 -5.72419 
-11.5062 22.9105 -5.72419 -10.9447 23.49 -5.72419 -7.76993 22.946 -5.72419 
-8.31872 23.49 -5.72419 -10.7589 23.632 -5.72419 -10.0117 24.2333 -6.42326 
-10.0117 23.7767 -5.72419 -9.26442 24.2333 -6.34564 -9.26442 23.7952 -5.72419 
-8.51718 23.6359 -5.72419 -4.78096 4.16408 -4.98754 -4.78316 4.16408 -4.98643 
-4.78096 4.16249 -4.98643 -4.03371 3.90896 -4.98643 -4.03371 4.16408 -5.16548 
-3.28647 4.13374 -4.98643 -3.28647 4.16408 -5.00771 -3.28647 4.13374 -4.98643 
-3.24173 4.16408 -4.98643 -3.28647 4.16408 -5.00771 -4.78096 4.90738 -5.06636 
-4.92965 4.90738 -4.98643 -4.03371 4.90738 -5.12473 -3.28647 4.90738 -5.031 
-3.17002 4.90738 -4.98643 -3.28647 4.90738 -5.031 -4.78096 5.49323 -4.98643 
-4.03371 5.65069 -4.99371 -4.22124 5.65069 -4.98643 -4.01294 5.65069 -4.98643 
-3.28647 5.01879 -4.98643 -3.28647 5.01879 -4.98643 -2.53922 5.65069 -5.00045 
-2.57542 5.65069 -4.98643 -2.53922 5.61307 -4.98643 -1.79198 5.62787 -4.98643 
-1.79198 5.65069 -4.99947 -1.04473 5.59032 -4.98643 -1.04473 5.65069 -5.0189 
-0.297489 5.63163 -4.98643 -0.297489 5.65069 -4.99578 0.449756 5.48331 -4.98643 
0.449756 5.65069 -5.07717 0.680563 5.65069 -4.98643 -4.03371 5.66837 -4.98643 
-3.28647 6.39399 -5.03592 -3.37997 6.39399 -4.98643 -3.28647 6.28716 -4.98643 
-3.28647 6.39399 -5.03592 -3.28647 6.28716 -4.98643 -2.53922 6.39399 -5.30485 
-1.79198 6.39399 -5.2965 -1.04473 6.39399 -5.27859 -0.297489 6.39399 -5.19956 
0.449756 6.39399 -5.17101 1.197 6.15492 -4.98643 1.197 6.39399 -5.08294 
1.41134 6.39399 -4.98643 -3.28647 7.1373 -5.38855 -3.80744 7.1373 -4.98643 
-3.28647 7.1373 -5.38855 -0.297489 7.1373 -5.44658 0.449756 7.1373 -5.13705 
1.197 7.1373 -5.14519 1.94424 7.10059 -4.98643 1.94424 7.1373 -4.99904 
1.96917 7.1373 -4.98643 -4.03371 7.88061 -5.23017 -4.27607 7.88061 -4.98643 
-4.03371 7.44774 -4.98643 -2.53922 7.88061 -5.71328 0.449756 7.88061 -5.45121 
1.197 7.88061 -5.22951 1.94424 7.88061 -5.05886 2.0791 7.88061 -4.98643 
-4.03371 8.62391 -5.30684 -4.38396 8.62391 -4.98643 -3.28647 8.62391 -5.69483 
-3.28647 8.62391 -5.69483 1.197 8.62391 -5.25978 1.94424 8.62391 -5.17038 
2.27518 8.62391 -4.98643 -4.78096 9.36722 -5.02541 -4.81389 9.36722 -4.98643 
-4.78096 9.30147 -4.98643 -4.03371 9.36722 -5.70997 1.197 9.36722 -5.36751 
1.94424 9.36722 -5.205 2.32573 9.36722 -4.98643 -4.78096 10.1105 -5.14191 
-4.90885 10.1105 -4.98643 1.197 10.1105 -5.44445 1.94424 10.1105 -5.19895 
2.30533 10.1105 -4.98643 -4.78096 10.8538 -5.13227 -4.90885 10.1105 -4.98643 
-4.78096 10.1105 -5.14191 -4.90044 10.8538 -4.98643 1.197 10.1105 -5.44445 
1.197 10.8538 -5.42441 1.94424 10.1105 -5.19895 1.94424 10.8538 -5.16022 
2.23729 10.8538 -4.98643 2.30533 10.1105 -4.98643 -4.78096 11.1734 -4.98643 
-4.03371 11.5971 -5.48957 -4.59304 11.5971 -4.98643 1.197 11.5971 -5.31971 
1.94424 11.5971 -5.10833 2.14513 11.5971 -4.98643 -4.03371 12.1603 -4.98643 
-3.28647 12.3404 -5.18657 -3.67675 12.3404 -4.98643 -2.53922 12.3404 -5.27078 
-3.28647 12.3404 -5.18657 -1.79198 12.3404 -5.33658 -1.04473 12.3404 -5.30674 
-0.297489 12.3404 -5.40964 0.449756 12.3404 -5.2695 0.917491 12.3404 -4.98643 
1.197 12.0965 -4.98643 1.94424 11.8083 -4.98643 -3.28647 12.5133 -4.98643 
-3.28647 12.5133 -4.98643 -2.53922 12.6648 -4.98643 -1.79198 12.7298 -4.98643 
-1.04473 12.7222 -4.98643 -0.297489 12.7419 -4.98643 0.449756 12.6181 -4.98643 
-10.0117 18.2869 -5.04317 -10.0509 18.2869 -4.98643 -10.0117 18.2583 -4.98643 
-9.26442 18.0713 -4.98643 -8.51718 18.2479 -4.98643 -8.51718 18.2869 -5.08306 
[...]
POINT_DATA 3874
SCALARS scalars float
LOOKUP_TABLE default
0.964218 0.964218 0.964218 0.964218 0.964218 0.964218 0.964218 0.964218 0.964218 
0.964218 0.964218 0.964218 0.964218 0.964218 0.964218 0.964218 0.964218 0.964218 
0.964218 0.964218 0.964218 0.964218 0.964218 0.964218 0.964218 0.964218 0.964218 
0.964218 0.964218 0.964218 0.964218 0.964218 0.964218 0.964218 0.964218 0.964218 
0.964218 0.964218 0.964218 0.964218 0.964218 0.964218 0.964218 0.964218 0.964218 
0.964218 0.964218 0.964218 0.964218 0.964218 0.964218 0.964218 0.964218 0.964218 
0.964218 0.964218 0.964218 0.964218 0.964218 0.964218 0.964218 0.964218 0.964218 
0.964218 0.964218 0.964218 0.964218 0.964218 0.964218 0.964218 0.964218 0.964218 
0.964218 0.964218 0.964218 0.964218 0.964218 0.964218 0.964218 0.964218 0.964218 
0.964218 0.964218 0.964218 0.964218 0.964218 0.964218 0.964218 0.964218 0.964218 
0.964218 0.964218 0.964218 0.964218 0.964218 0.964218 0.964218 0.964218 0.964218 
0.964218 0.964218 0.964218 0.964218 0.964218 0.964218 0.964218 0.964218 0.964218 
0.964218 0.964218 0.964218 0.964218 0.964218 0.964218 0.964218 0.964218 0.964218 
0.964218 0.964218 0.964218 0.964218 0.964218 0.964218 0.964218 0.964218 0.964218 
0.964218 0.964218 0.964218 0.964218 0.964218 0.964218 0.964218 0.964218 0.964218 
0.964218 0.964218 0.964218 0.964218 0.964218 0.964218 0.964218 0.964218 0.964218 
0.964218 0.964218 0.964218 0.964218 0.964218 0.964218 0.964218 0.964218 0.964218 
0.964218 0.964218 0.964218 0.964218 0.964218 0.964218 0.964218 0.964218 0.964218 
0.964218 0.964218 0.964218 0.964218 0.964218 0.964218 0.964218 0.964218 0.964218 
0.964218 0.964218 0.964218 0.964218 0.964218 0.964218 0.964218 0.964218 0.964218 
0.964218 0.964218 0.964218 0.964218 0.964218 0.964218 0.964218 0.964218 0.964218 
0.964218 0.964218 0.964218 0.964218 0.964218 0.964218 0.964218 0.964218 0.964218 
0.964218 0.964218 0.964218 0.964218 0.964218 0.964218 0.964218 0.964218 0.964218 
0.964218 0.964218 0.964218 0.964218 0.964218 0.964218 0.964218 0.964218 0.964218 
0.964218 0.964218 0.964218 0.964218 0.964218 0.964218 0.964218 0.964218 0.964218 
0.964218 0.964218 0.964218 0.964218 0.964218 0.964218 0.964218 0.964218 0.964218 
0.964218 0.964218 0.964218 0.964218 0.964218 0.964218 0.964218 0.964218 0.964218 
0.964218 0.964218 0.964218 0.964218 0.964218 0.964218 0.964218 0.964218 0.964218 
0.964218 0.964218 0.964218 0.964218 0.964218 0.964218 0.964218 0.964218 0.964218 
0.964218 0.964218 0.964218 0.964218 0.964218 0.964218 0.964218 0.964218 0.964218 
0.964218 0.964218 0.964218 0.964218 0.964218 0.964218 0.964218 0.964218 0.964218 
0.964218 0.964218 0.964218 0.964218 0.964218 0.964218 0.964218 0.964218 0.964218 
0.964218 0.964218 0.964218 0.964218 0.964218 0.964218 0.964218 0.964218 0.964218 
0.964218 0.964218 0.964218 0.964218 0.964218 0.964218 0.964218 0.964218 0.964218 
0.964218 0.964218 0.964218 0.964218 0.964218 0.964218 0.964218 0.964218 0.964218 
0.964218 0.964218 0.964218 0.964218 0.964218 0.964218 0.964218 0.964218 0.964218 
0.964218 0.964218 0.964218 0.964218 0.964218 0.964218 0.964218 0.964218 0.964218 
0.964218 0.964218 0.964218 0.964218 0.964218 0.964218 0.964218 0.964218 0.964218 
0.964218 0.964218 0.964218 0.964218 0.964218 0.964218 0.964218 0.964218 0.964218 
0.964218 0.964218 0.964218 0.964218 0.964218 0.964218 0.964218 0.964218 0.964218 
0.964218 0.964218 0.964218 0.964218 0.964218 0.964218 0.964218 0.964218 0.964218 
0.964218 0.964218 0.964218 0.964218 0.964218 0.964218 0.964218 0.964218 0.964218 
0.964218 0.964218 0.964218 0.964218 0.964218 0.964218 0.964218 0.964218 0.964218 
0.964218 0.964218 0.964218 0.964218 0.964218 0.964218 0.964218 0.964218 0.964218 
0.964218 0.964218 0.964218 0.964218 0.964218 0.964218 0.964218 0.964218 0.964218 
0.964218 0.964218 0.964218 0.964218 0.964218 0.964218 0.964218 0.964218 0.964218 
0.964218 0.964218 0.964218 0.964218 0.964218 0.964218 0.964218 0.964218 0.964218 
0.964218 0.964218 0.964218 0.964218 0.964218 0.964218 0.964218 0.964218 0.964218 
0.964218 0.964218 0.964218 0.964218 0.964218 0.964218 0.964218 0.964218 0.964218 
0.964218 0.964218 0.964218 0.964218 0.964218 0.964218 0.964218 0.964218 0.964218 
0.964218 0.964218 0.964218 0.964218 0.964218 0.964218 0.964218 0.964218 0.964218 
0.964218 0.964218 0.964218 0.964218 0.964218 0.964218 0.964218 0.964218 0.964218 
0.964218 0.964218 0.964218 0.964218 0.964218 0.964218 0.964218 0.964218 0.964218 
0.964218 0.964218 0.964218 0.964218 0.964218 0.964218 0.964218 0.964218 0.964218 
0.964218 0.964218 0.964218 0.964218 0.964218 0.964218 0.964218 0.964218 0.964218 
0.964218 0.964218 0.964218 0.964218 0.964218 0.964218 0.964218 0.964218 0.964218 
0.964218 0.964218 0.964218 0.964218 0.964218 0.964218 0.964218 0.964218 0.964218 
0.964218 0.964218 0.964218 0.964218 0.964218 0.964218 0.964218 0.964218 0.964218 
0.964218 0.964218 0.964218 0.964218 0.964218 0.964218 0.964218 0.964218 0.964218 
0.964218 0.964218 0.964218 0.964218 0.964218 0.964218 0.964218 0.964218 0.964218 
0.964218 0.964218 0.964218 0.964218 0.964218 0.964218 0.964218 0.964218 0.964218 
0.964218 0.964218 0.964218 0.964218 0.964218 0.964218 0.964218 0.964218 0.964218 
0.964218 0.964218 0.964218 0.964218 0.964218 0.964218 0.964218 0.964218 0.964218 
0.964218 0.964218 0.964218 0.964218 0.964218 0.964218 0.964218 0.964218 0.964218 
0.964218 0.964218 0.964218 0.964218 0.964218 0.964218 0.964218 0.964218 0.964218 
0.964218 0.964218 0.964218 0.964218 0.964218 0.964218 0.964218 0.964218 0.964218 
0.964218 0.964218 0.964218 0.964218 0.964218 0.964218 0.964218 0.964218 0.964218 
0.964218 0.964218 0.964218 0.964218 0.964218 0.964218 0.964218 0.964218 0.964218 
0.964218 0.964218 0.964218 0.964218 0.964218 0.964218 0.964218 0.964218 0.964218 
0.964218 0.964218 0.964218 0.964218 0.964218 0.964218 0.964218 0.964218 0.964218 
0.964218 0.964218 0.964218 0.964218 0.964218 0.964218 0.964218 0.964218 0.964218 
0.964218 0.964218 0.964218 0.964218 0.964218 0.964218 0.964218 0.964218 0.964218 
0.964218 0.964218 0.964218 0.964218 0.964218 0.964218 0.964218 0.964218 0.964218 
0.964218 0.964218 0.964218 0.964218 0.964218 0.964218 0.964218 0.964218 0.964218 
0.964218 0.964218 0.964218 0.964218 0.964218 0.964218 0.964218 0.964218 0.964218 
0.964218 0.964218 0.964218 0.964218 0.964218 0.964218 0.964218 0.964218 0.964218 
0.964218 0.964218 0.964218 0.964218 0.964218 0.964218 0.964218 0.964218 0.964218 
0.964218 0.964218 0.964218 0.964218 0.964218 0.964218 0.964218 0.964218 0.964218 
0.964218 0.964218 0.964218 0.964218 0.964218 0.964218 0.964218 0.964218 0.964218 
0.964218 0.964218 0.964218 0.964218 0.964218 0.964218 0.964218 0.964218 0.964218 
0.964218 0.964218 0.964218 0.964218 0.964218 0.964218 0.964218 0.964218 0.964218 
0.964218 0.964218 0.964218 0.964218 0.964218 0.964218 0.964218 0.964218 0.964218 
0.964218 0.964218 0.964218 0.964218 0.964218 0.964218 0.964218 0.964218 0.964218 
0.964218 0.964218 0.964218 0.964218 0.964218 0.964218 0.964218 0.964218 0.964218 
0.964218 0.964218 0.964218 0.964218 0.964218 0.964218 0.964218 0.964218 0.964218 
0.964218 0.964218 0.964218 0.964218 0.964218 0.964218 0.964218 0.964218 0.964218 
0.964218 0.964218 0.964218 0.964218 0.964218 0.964218 0.964218 0.964218 0.964218 
0.964218 0.964218 0.964218 0.964218 0.964218 0.964218 0.964218 0.964218 0.964218 
0.964218 0.964218 0.964218 0.964218 0.964218 0.964218 0.964218 0.964218 0.964218 
0.964218 0.964218 0.964218 0.964218 0.964218 0.964218 0.964218 0.964218 0.964218 
0.964218 0.964218 0.964218 0.964218 0.964218 0.964218 0.964218 0.964218 0.964218 
0.964218 0.964218 0.964218 0.964218 0.964218 0.964218 0.964218 0.964218 0.964218 
0.964218 0.964218 0.964218 0.964218 0.964218 0.964218 0.964218 0.964218 0.964218 
0.964218 0.964218 0.964218 0.964218 0.964218 0.964218 0.964218 0.964218 0.964218 
0.964218 0.964218 0.964218 0.964218 0.964218 0.964218 0.964218 0.964218 0.964218 
0.964218 0.964218 0.964218 0.964218 0.964218 0.964218 0.964218 0.964218 0.964218 
0.964218 0.964218 0.964218 0.964218 0.964218 0.964218 0.964218 0.964218 0.964218 
0.964218 0.964218 0.964218 0.964218 0.964218 0.964218 0.964218 0.964218 0.964218 
0.964218 0.964218 0.964218 0.964218 0.964218 0.964218 0.964218 0.964218 0.964218 
0.964218 0.964218 0.964218 0.964218 0.964218 0.964218 0.964218 0.964218 0.964218 
0.964218 0.964218 0.964218 0.964218 0.964218 0.964218 0.964218 0.964218 0.964218 
0.964218 0.964218 0.964218 0.964218 0.964218 0.964218 0.964218 0.964218 0.964218 
0.964218 0.964218 0.964218 0.964218 0.964218 0.964218 0.964218 0.964218 0.964218 
0.964218 0.964218 0.964218 0.964218 0.964218 0.964218 0.964218 0.964218 0.964218 
0.964218 0.964218 0.964218 0.964218 0.964218 0.964218 0.964218 0.964218 0.964218 
0.964218 0.964218 0.964218 0.964218 0.964218 0.964218 0.964218 0.964218 0.964218 
0.964218 0.964218 0.964218 0.964218 0.964218 0.964218 0.964218 0.964218 0.964218 
0.964218 0.964218 0.964218 0.964218 0.964218 0.964218 0.964218 0.964218 0.964218 
0.964218 0.964218 0.964218 0.964218 0.964218 0.964218 0.964218 0.964218 0.964218 
0.964218 0.964218 0.964218 0.964218 0.964218 0.964218 0.964218 0.964218 0.964218 
0.964218 0.964218 0.964218 0.964218 0.964218 0.964218 0.964218 0.964218 0.964218 
0.964218 0.964218 0.964218 0.964218 0.964218 0.964218 0.964218 0.964218 0.964218 
0.964218 0.964218 0.964218 0.964218 0.964218 0.964218 0.964218 0.964218 0.964218 
0.964218 0.964218 0.964218 0.964218 0.964218 0.964218 0.964218 0.964218 0.964218 
0.964218 0.964218 0.964218 0.964218 0.964218 0.964218 0.964218 0.964218 0.964218 
0.964218 0.964218 0.964218 0.964218 0.964218 0.964218 0.964218 0.964218 0.964218 
0.964218 0.964218 0.964218 0.964218 0.964218 0.964218 0.964218 0.964218 0.964218 
0.964218 0.964218 0.964218 0.964218 0.964218 0.964218 0.964218 0.964218 0.964218 
0.964218 0.964218 0.964218 0.964218 0.964218 0.964218 0.964218 0.964218 0.964218 
0.964218 0.964218 0.964218 0.964218 0.964218 0.964218 0.964218 0.964218 0.964218 
0.964218 0.964218 0.964218 0.964218 0.964218 0.964218 0.964218 0.964218 0.964218 
0.964218 0.964218 0.964218 0.964218 0.964218 0.964218 0.964218 0.964218 0.964218 
0.964218 0.964218 0.964218 0.964218 0.964218 0.964218 0.964218 0.964218 0.964218 
0.964218 0.964218 0.964218 0.964218 0.964218 0.964218 0.964218 0.964218 0.964218 
0.964218 0.964218 0.964218 0.964218 0.964218 0.964218 0.964218 0.964218 0.964218 
0.964218 0.964218 0.964218 0.964218 0.964218 0.964218 0.964218 0.964218 0.964218 
0.964218 0.964218 0.964218 0.964218 0.964218 0.964218 0.964218 0.964218 0.964218 
0.964218 0.964218 0.964218 0.964218 0.964218 0.964218 0.964218 0.964218 0.964218 
0.964218 0.964218 0.964218 0.964218 0.964218 0.964218 0.964218 0.964218 0.964218 
0.964218 0.964218 0.964218 0.964218 0.964218 0.964218 0.964218 0.964218 0.964218 
0.964218 0.964218 0.964218 0.964218 0.964218 0.964218 0.964218 0.964218 0.964218 
0.964218 0.964218 0.964218 0.964218 0.964218 0.964218 0.964218 0.964218 0.964218 
0.964218 0.964218 0.964218 0.964218 0.964218 0.964218 0.964218 0.964218 0.964218 
0.964218 0.964218 0.964218 0.964218 0.964218 0.964218 0.964218 0.964218 0.964218 
0.964218 0.964218 0.964218 0.964218 0.964218 0.964218 0.964218 0.964218 0.964218 
0.964218 0.964218 0.964218 0.964218 0.964218 0.964218 0.964218 0.964218 0.964218 
0.964218 0.964218 0.964218 0.964218 0.964218 0.964218 0.964218 0.964218 0.964218 
0.964218 0.964218 0.964218 0.964218 0.964218 0.964218 0.964218 0.964218 0.964218 
0.964218 0.964218 0.964218 0.964218 0.964218 0.964218 0.964218 0.964218 0.964218 
0.964218 0.964218 0.964218 0.964218 0.964218 0.964218 0.964218 0.964218 0.964218 
0.964218 0.964218 0.964218 0.964218 0.964218 0.964218 0.964218 0.964218 0.964218 
0.964218 0.964218 0.964218 0.964218 0.964218 0.964218 0.964218 0.964218 0.964218 
0.964218 0.964218 0.964218 0.964218 0.964218 0.964218 0.964218 0.964218 0.964218 
0.964218 0.964218 0.964218 0.964218 0.964218 0.964218 0.964218 0.964218 0.964218 
0.964218 0.964218 0.964218 0.964218 0.964218 0.964218 0.964218 0.964218 0.964218 
0.964218 0.964218 0.964218 0.964218 0.964218 0.964218 0.964218 0.964218 0.964218 
0.964218 0.964218 0.964218 0.964218 0.964218 0.964218 0.964218 0.964218 0.964218 
0.964218 0.964218 0.964218 0.964218 0.964218 0.964218 0.964218 0.964218 0.964218 
0.964218 0.964218 0.964218 0.964218 0.964218 0.964218 0.964218 0.964218 0.964218 
0.964218 0.964218 0.964218 0.964218 0.964218 0.964218 0.964218 0.964218 0.964218 
0.964218 0.964218 0.964218 0.964218 0.964218 0.964218 0.964218 0.964218 0.964218 
0.964218 0.964218 0.964218 0.964218 0.964218 0.964218 0.964218 0.964218 0.964218 
0.964218 0.964218 0.964218 0.964218 0.964218 0.964218 0.964218 0.964218 0.964218 
0.964218 0.964218 0.964218 0.964218 0.964218 0.964218 0.964218 0.964218 0.964218 
0.964218 0.964218 0.964218 0.964218 0.964218 0.964218 0.964218 0.964218 0.964218 
0.964218 0.964218 0.964218 0.964218 0.964218 0.964218 0.964218 0.964218 0.964218 
0.964218 0.964218 0.964218 0.964218 0.964218 0.964218 0.964218 0.964218 0.964218 
0.964218 0.964218 0.964218 0.964218 0.964218 0.964218 0.964218 0.964218 0.964218 
0.964218 0.964218 0.964218 0.964218 0.964218 0.964218 0.964218 0.964218 0.964218 
0.964218 0.964218 0.964218 0.964218 0.964218 0.964218 0.964218 0.964218 0.964218 
0.964218 0.964218 0.964218 0.964218 0.964218 0.964218 0.964218 0.964218 0.964218 
0.964218 0.964218 0.964218 0.964218 0.964218 0.964218 0.964218 0.964218 0.964218 
0.964218 0.964218 0.964218 0.964218 0.964218 0.964218 0.964218 0.964218 0.964218 
0.964218 0.964218 0.964218 0.964218 0.964218 0.964218 0.964218 0.964218 0.964218 
0.964218 0.964218 0.964218 0.964218 0.964218 0.964218 0.964218 0.964218 0.964218 
0.964218 0.964218 0.964218 0.964218 0.964218 0.964218 0.964218 0.964218 0.964218 
0.964218 0.964218 0.964218 0.964218 0.964218 0.964218 0.964218 0.964218 0.964218 
0.964218 0.964218 0.964218 0.964218 0.964218 0.964218 0.964218 0.964218 0.964218 
0.964218 0.964218 0.964218 0.964218 0.964218 0.964218 0.964218 0.964218 0.964218 
0.964218 0.964218 0.964218 0.964218 0.964218 0.964218 0.964218 0.964218 0.964218 
0.964218 0.964218 0.964218 0.964218 0.964218 0.964218 0.964218 0.964218 0.964218 
0.964218 0.964218 0.964218 0.964218 0.964218 0.964218 0.964218 0.964218 0.964218 
0.964218 0.964218 0.964218 0.964218 0.964218 0.964218 0.964218 0.964218 0.964218 
0.964218 0.964218 0.964218 0.964218 0.964218 0.964218 0.964218 0.964218 0.964218 
0.964218 0.964218 0.964218 0.964218 0.964218 0.964218 0.964218 0.964218 0.964218 
0.964218 0.964218 0.964218 0.964218 0.964218 0.964218 0.964218 0.964218 0.964218 
0.964218 0.964218 0.964218 0.964218 0.964218 0.964218 0.964218 0.964218 0.964218 
0.964218 0.964218 0.964218 0.964218 0.964218 0.964218 0.964218 0.964218 0.964218 
0.964218 0.964218 0.964218 0.964218 0.964218 0.964218 0.964218 0.964218 0.964218 
0.964218 0.964218 0.964218 0.964218 0.964218 0.964218 0.964218 0.964218 0.964218 
0.964218 0.964218 0.964218 0.964218 0.964218 0.964218 0.964218 0.964218 0.964218 
0.964218 0.964218 0.964218 0.964218 0.964218 0.964218 0.964218 0.964218 0.964218 
0.964218 0.964218 0.964218 0.964218 0.964218 0.964218 0.964218 0.964218 0.964218 
0.964218 0.964218 0.964218 0.964218 0.964218 0.964218 0.964218 0.964218 0.964218 
0.964218 0.964218 0.964218 0.964218 0.964218 0.964218 0.964218 0.964218 0.964218 
0.964218 0.964218 0.964218 0.964218 0.964218 0.964218 0.964218 0.964218 0.964218 
0.964218 0.964218 0.964218 0.964218 0.964218 0.964218 0.964218 0.964218 0.964218 
0.964218 0.964218 0.964218 0.964218 0.964218 0.964218 0.964218 0.964218 0.964218 
0.964218 0.964218 0.964218 0.964218 0.964218 0.964218 0.964218 0.964218 0.964218 
0.964218 0.964218 0.964218 0.964218 0.964218 0.964218 0.964218 0.964218 0.964218 
0.964218 0.964218 0.964218 0.964218 0.964218 0.964218 0.964218 0.964218 0.964218 
0.964218 0.964218 0.964218 0.964218 0.964218 0.964218 0.964218 0.964218 0.964218 
0.964218 0.964218 0.964218 0.964218 0.964218 0.964218 0.964218 0.964218 0.964218 
0.964218 0.964218 0.964218 0.964218 0.964218 0.964218 0.964218 0.964218 0.964218 
0.964218 0.964218 0.964218 0.964218 0.964218 0.964218 0.964218 0.964218 0.964218 
0.964218 0.964218 0.964218 0.964218 0.964218 0.964218 0.964218 0.964218 0.964218 
0.964218 0.964218 0.964218 0.964218 0.964218 0.964218 0.964218 0.964218 0.964218 
0.964218 0.964218 0.964218 0.964218 0.964218 0.964218 0.964218 0.964218 0.964218 
0.964218 0.964218 0.964218 0.964218 0.964218 0.964218 0.964218 0.964218 0.964218 
0.964218 0.964218 0.964218 0.964218 0.964218 0.964218 0.964218 0.964218 0.964218 
0.964218 0.964218 0.964218 0.964218 0.964218 0.964218 0.964218 0.964218 0.964218 
0.964218 0.964218 0.964218 0.964218 0.964218 0.964218 0.964218 0.964218 0.964218 
0.964218 0.964218 0.964218 0.964218 0.964218 0.964218 0.964218 0.964218 0.964218 
0.964218 0.964218 0.964218 0.964218 0.964218 0.964218 0.964218 0.964218 0.964218 
0.964218 0.964218 0.964218 0.964218 0.964218 0.964218 0.964218 0.964218 0.964218 
0.964218 0.964218 0.964218 0.964218 0.964218 0.964218 0.964218 0.964218 0.964218 
0.964218 0.964218 0.964218 0.964218 0.964218 0.964218 0.964218 0.964218 0.964218 
0.964218 0.964218 0.964218 0.964218 0.964218 0.964218 0.964218 0.964218 0.964218 
0.964218 0.964218 0.964218 0.964218 0.964218 0.964218 0.964218 0.964218 0.964218 
0.964218 0.964218 0.964218 0.964218 0.964218 0.964218 0.964218 0.964218 0.964218 
0.964218 0.964218 0.964218 0.964218 0.964218 0.964218 0.964218 0.964218 0.964218 
0.964218 0.964218 0.964218 0.964218 0.964218 0.964218 0.964218 0.964218 0.964218 
0.964218 0.964218 0.964218 0.964218 0.964218 0.964218 0.964218 0.964218 0.964218 
0.964218 0.964218 0.964218 0.964218 0.964218 0.964218 0.964218 0.964218 0.964218 
0.964218 0.964218 0.964218 0.964218 0.964218 0.964218 0.964218 0.964218 0.964218 
0.964218 0.964218 0.964218 0.964218 0.964218 0.964218 0.964218 0.964218 0.964218 
0.964218 0.964218 0.964218 0.964218 0.964218 0.964218 0.964218 0.964218 0.964218 
0.964218 0.964218 0.964218 0.964218 0.964218 0.964218 0.964218 0.964218 0.964218 
0.964218 0.964218 0.964218 0.964218 0.964218 0.964218 0.964218 0.964218 0.964218 
0.964218 0.964218 0.964218 0.964218 0.964218 0.964218 0.964218 0.964218 0.964218 
0.964218 0.964218 0.964218 0.964218 0.964218 0.964218 0.964218 0.964218 0.964218 
0.964218 0.964218 0.964218 0.964218 0.964218 0.964218 0.964218 0.964218 0.964218 
0.964218 0.964218 0.964218 0.964218 0.964218 0.964218 0.964218 0.964218 0.964218 
0.964218 0.964218 0.964218 0.964218 0.964218 0.964218 0.964218 0.964218 0.964218 
0.964218 0.964218 0.964218 0.964218 0.964218 0.964218 0.964218 0.964218 0.964218 
0.964218 0.964218 0.964218 0.964218 0.964218 0.964218 0.964218 0.964218 0.964218 
0.964218 0.964218 0.964218 0.964218 0.964218 0.964218 0.964218 0.964218 0.964218 
0.964218 0.964218 0.964218 0.964218 0.964218 0.964218 0.964218 0.964218 0.964218 
0.964218 0.964218 0.964218 0.964218 0.964218 0.964218 0.964218 0.964218 0.964218 
0.964218 0.964218 0.964218 0.964218 0.964218 0.964218 0.964218 0.964218 0.964218 
0.964218 0.964218 0.964218 0.964218 0.964218 0.964218 0.964218 0.964218 0.964218 
0.964218 0.964218 0.964218 0.964218 0.964218 0.964218 0.964218 0.964218 0.964218 
0.964218 0.964218 0.964218 0.964218 0.964218 0.964218 0.964218 0.964218 0.964218 
0.964218 0.964218 0.964218 0.964218 0.964218 0.964218 0.964218 0.964218 0.964218 
0.964218 0.964218 0.964218 0.964218 0.964218 0.964218 0.964218 0.964218 0.964218 
0.964218 0.964218 0.964218 0.964218 0.964218 0.964218 0.964218 0.964218 0.964218 
0.964218 0.964218 0.964218 0.964218 0.964218 0.964218 0.964218 0.964218 0.964218 
0.964218 0.964218 0.964218 0.964218 0.964218 0.964218 0.964218 0.964218 0.964218 
0.964218 0.964218 0.964218 0.964218 0.964218 0.964218 0.964218 0.964218 0.964218 
0.964218 0.964218 0.964218 0.964218 0.964218 0.964218 0.964218 0.964218 0.964218 
0.964218 0.964218 0.964218 0.964218 0.964218 0.964218 0.964218 0.964218 0.964218 
0.964218 0.964218 0.964218 0.964218 0.964218 0.964218 0.964218 0.964218 0.964218 
0.964218 0.964218 0.964218 0.964218 0.964218 0.964218 0.964218 0.964218 0.964218 